49
Lattice="12.336457 0.0 0.0 -6.168228499999997 10.683685154694365 0.0 0.0 0.0 15.0" Properties=species:S:1:pos:R:3:forces:R:3 energy=-424.67113883646493 free_energy=-424.67113883646493 stress="-0.0005172499267220207 -0.0025896289543225707 -1.7312313626775638e-06 -0.0025896289543225707 -0.007446269090927173 -1.8083242211113812e-05 -1.7312313626775638e-06 -1.8083242211113812e-05 -3.399157778042836e-07" pbc="T T T"
C       -0.00491016      -0.02038660       3.96912646      -0.00436801       0.00011184      -0.00258874
C       -1.25734740       2.12590242       4.09312701       0.00541595       0.00210224       0.00014120
C       -2.49867409       4.26156710       3.83423998      -0.00627941      -0.00581898       0.00540327
C       -3.70878957       6.39239050       3.65367669       0.00006784      -0.01348309       0.00905814
C       -4.93194014       8.52342032       3.76789075      -0.00268097       0.00390063      -0.00146048
C        2.47055568      -0.05813859       3.85430870       0.00174379       0.00596652      -0.00204392
C        1.25000799       2.05029485       4.24187557       0.00507765       0.00178173       0.00353913
C       -0.08078751       4.29333086       4.19487222       0.00082176       0.00677927      -0.00651803
C       -1.22554715       6.37833016       3.63487902       0.00260810       0.00136618      -0.00327546
C       -2.45489823       8.50858493       3.64740529      -0.00853616      -0.00412611       0.01031543
C        4.93145200      -0.03259568       3.63717017       0.00336026       0.00088688       0.00374240
C        3.65565634       2.03483329       3.53037060      -0.00172862       0.00155528      -0.00245427
P        1.59818089       6.18447899       3.14036384      -0.01542415      -0.00450054       0.00513839
C        0.01546762       8.52271085       3.54103263       0.00407360       0.00440819       0.00883886
C        7.38342580       0.01329730       3.66780805       0.00592600       0.00142927      -0.00088580
C        6.13241079       2.14050492       3.51788633      -0.00424526      -0.00102567      -0.00557757
C        4.94794555       4.31435148       3.25510695       0.00398916      -0.00612237       0.00400941
C        3.64608813       6.45434581       3.58741478       0.00105494       0.00008308      -0.00581398
C        2.47890253       8.59926355       3.63456375       0.00782226       0.00016166       0.00327911
C        9.86192467       0.01656729       3.85406820       0.00331925      -0.00024751       0.00113612
C        8.60960462       2.14017788       3.77693454      -0.00433581       0.00111857       0.00262301
C        7.37581508       4.27222505       3.59194218      -0.00380810       0.00339589      -0.00556706
C        6.14745558       6.41381536       3.58140282      -0.00345784       0.00101919      -0.00361676
C        4.94288513       8.55846484       3.75964812       0.00310420      -0.00465159      -0.00605045
C       -0.01082676       1.39979108       4.13160313       0.00527654       0.00076656      -0.00210752
C       -1.28260716       3.54674707       4.07122638      -0.00215481       0.00333612       0.00260967
C       -2.47745032       5.67975615       3.70152346       0.00512426      -0.00888050       0.00066627
C       -3.69810750       7.81140259       3.68354715      -0.00793845      -0.01072649       0.00319995
C       -4.93983556       9.93553276       3.88528030      -0.00085925       0.00746276       0.00533285
C        2.46387371       1.35741859       3.92169822       0.00122777       0.00439274      -0.00162501
P        1.29620730       3.60927714       5.03922641       0.00724236       0.00187976      -0.00197279
C       -0.01403164       5.63038053       3.73117169       0.00717678      -0.00011949       0.00319108
C       -1.21950572       7.80139889       3.56820717      -0.00238329       0.00227835      -0.00734612
C       -2.46353467       9.92888893       3.70477705       0.00032875       0.00068721      -0.00285747
C        4.91510990       1.40173509       3.55703826      -0.00279917       0.00012654       0.00145285
S        3.48768587       3.55339712       2.73868152       0.00112845      -0.00648254       0.00172082
C        1.28053999       7.87189232       3.48104417       0.00459380       0.00387890       0.00529703
C       -0.00000359       9.95429814       3.60810286       0.00651878       0.00433275      -0.00315823
C        7.36845686       1.43884513       3.65670115      -0.00431332       0.00088611      -0.00029968
C        6.13192209       3.56540616       3.45023114       0.00355492      -0.00007337      -0.01493728
C        4.89231620       5.72746342       3.43407774      -0.00210078      -0.00173162      -0.00614969
C        3.70684772       7.86565762       3.65423353       0.00504120      -0.00200527       0.00384960
C        2.46014759      10.00900601       3.73066385       0.00610345      -0.00008166      -0.00773235
C        9.85046125       1.43142798       3.91895277       0.00275313       0.00267164       0.00654202
C        8.60556921       3.55854479       3.73922375      -0.00985330       0.00037112      -0.00129611
C        7.38091374       5.69269979       3.60469679      -0.00586822      -0.00069611       0.00955045
C        6.16686793       7.83025082       3.72128037       0.00059294      -0.00056042      -0.00281961
C        4.93060427       9.97675090       3.87293231      -0.00140155      -0.00639168      -0.00589521
Ag       2.76088846       5.51284322       5.38148376      -0.01051145       0.00858804       0.00341251
